

   *************************************************************************
         <<<     CCCCCC     CCCCCC   |||     CCCCCC     CCCCCC   >>>
       <<<      CCC        CCC       |||    CCC        CCC         >>>
      <<<      CCC        CCC        |||   CCC        CCC            >>>
    <<<        CCC        CCC        |||   CCC        CCC              >>>
      <<<      CCC        CCC        |||   CCC        CCC            >>>
       <<<      CCC        CCC       |||    CCC        CCC         >>>
         <<<     CCCCCC     CCCCCC   |||     CCCCCC     CCCCCC   >>>
   *************************************************************************

     ****************************************************************
     * CFOUR Coupled-Cluster techniques for Computational Chemistry *
     ****************************************************************
 

   Department of Chemistry                Institut fuer Physikalische Chemie
   University of Texas at Austin          Universitaet Mainz
   Austin, TX  78712, USA                 D-55099 Mainz, Germany
 
                       Version 1.2
 
                     login4.ufhpc                                      
                     Mon Sep 27 23:58:49 EDT 2021                      
                     integer*8 version is running
 
********************************************************************************
*                          Input from ZMAT file                                *
********************************************************************************
c2h                                                                             
X                                                                               
C 1 RX                                                                          
C 2 R1 1 A90                                                                    
H 2 R2 1 A90 3 T180                                                             
                                                                                
RX   =        1.000001432602556                                                 
R1   =        1.277235507324941                                                 
A90  =       90.000000000000000                                                 
R2   =        1.061636061128268                                                 
T180 =      180.000000000000000                                                 
                                                                                
*CRAPS(CALC=CCSDT,BASIS=ANO2,CHARGE=-1,CPHF_CONV=16,CC_PROG=NCC                 
MULT=1,REF=RHF,MEMORY=2000000000                                                
CONTINUUM=VIRTUAL,EXCITE=EOMEE                                                  
FREQ_ALGORITHM=PARALLEL,VIB=FINDIF,FD_USEGROUP=COMP)                            
                                                                                
%excite*                                                                        
1                                                                               
1                                                                               
1 6 0 8 0 1.0                                                                   
                                                                                
********************************************************************************
    -------------------------------------------------------------------
                    CFOUR Control Parameters 
    -------------------------------------------------------------------
        External           Internal           Value            Units
          Name               Name
    -------------------------------------------------------------------
       ABCDTYPE             IABCDT         STANDARD    [  0]    ***   
       ANHARMONIC           IANHAR         OFF         [  0]    ***   
       ANH_ALGORIT          IANALG         STANDARD    [  0]    ***   
       ANH_DERIVAT          IANDER         SECOND      [  1]    ***   
       ANH_MODE             ANHMOD         VIBRATION   [  0]    ***   
       ANH_POINTS           IANPOI              1               ***   
       ANH_STEPSIZ          ICUBST             50000          x 10-6  
       ANH_SYMMETR          IANHSM         ABELIAN     [  0]    ***   
       AO_LADDERS           IAOLAD         SINGLEPASS  [  1]    ***   
       AUXBASIS             IAUXBS         AUTO        [  0]    ***   
       AV_SCF               IAVSCF         OFF         [  0]    ***   
       BASIS                IBASIS         ANO2        [ 71]    ***   
       BFIELD               IBFIEL         OFF         [  0]    a.u.  
       BOTHVECTORS          BOTHVC         OFF         [  0]    ***   
       BOX_POTENT           IPIAB          OFF         [  0]    ***   
       BREIT                IBREIT         OFF         [  0]    ***   
       BRUCK_CONV           IBRTOL          10D-  4             ***   
       BRUECKNER            IBRKNR         OFF         [  0]    ***   
       BUFFERSIZE           IBUFFS              4096            ***   
       CACHE_RECS           ICHREC             10               ***   
       CALCLEVEL            ICLLVL         CCSDT       [ 18]    ***   
       CAS_GECCO            ICMRCC         OFF         [  0]    ***   
       CAS_GUESS            ICGUES         CANONICAL   [  0]    ***   
       CAS_INPUT            ICSINP         ORBITALS    [  0]    ***   
       CAS_ITMAX            ICITMX          10D- 50           cycles  
       CAS_JACDAV           ICJDAV         OFF         [  0]    ***   
       CAS_MICMAX           ICMIMN          10D- 10             ***   
       CAS_MICMIN           ICMIMX          10D-  2             ***   
       CAS_MICRO            ICSALG         ILU/JACOBI  [  0]    ***   
       CAS_MITMAX           ICMIMX          10D-100           cycles  
       CAS_MMAX             ICMMAX          10D- 50             ***   
       CAS_PRINT            ICPRT           10D-  0             ***   
       CCORBOPT             ICCORB         OFF         [  0]  x 0.01  
       CC_CONV              ICCCNV          10D-  9             ***   
       CC_EXPORDER          ICCEOR              5               ***   
       CC_EXTRAPOL          ICCEXT         DIIS        [  1]    ***   
       CC_GUESS             ICCGES         MP2         [  0]    ***   
       CC_MAXCYC            ICCCYC            100              cycles 
       CC_PROGRAM           ICCPRO         NCC         [  5]    ***   
       CHARGE               ICHRGE             -1               ***   
       CHOLESKY             ICHOLE         OFF         [  0]    ***   
       CIS_CONV             ICISTL              5               ***   
       COMM_SIZE            IPSIZE            ***               ***   
       CONSTANT             ICONST         OLD         [  1]    ***   
       CONTINUUM            ICONTU         VIRTUAL     [  2]    ***   
       CONTRACTION          ICNTYP         GENERAL     [  1]    ***   
       COORDINATES          ICOORD         INTERNAL    [  0]    ***   
       CPHF_CONVER          ICPHFT          10D- 16             ***   
       CPHF_MAXCYC          ICPHFC             64              cycles 
       CUBIC                ICUBIC         OFF         [  0]    ***   
       CURVILINEAR          ICURVY         OFF         [  0]    ***   
       CV_ELEMENT           ICVELM              0               ***   
       CV_ORBITALS          ICVORB      NONE         
       CV_SEPARATE          ICVSEP         OFF         [  0]    ***   
       DBOC                 IDBOC          OFF         [  0]    ***   
       DCT                  IDCT           OFF         [  0]    ***   
       DERIV_LEV            IDRLVL         FIRST       [  1]    ***   
       DEVMEM_SIZE          IDVMEM          50000000           MByte  
       DF                   IDF            OFF         [  0]    ***   
       DIAG_MRCC            IEOMST          10D-  0             ***   
       DIFF_TYPE            IDIFTY         RELAXED     [  0]    ***   
       DIRECT               IDIRCT         OFF         [  0]    ***   
       DROPMO               IDRPMO      NONE         
       ECP                  IECP           OFF         [  0]    ***   
       EIGENVECTOR          IVEC                1               ***   
       EL_ANHARM            IELANH         OFF         [  0]    ***   
       EOMFOLLOW            IEOMSR         ENERGY      [  0]    ***   
       EOMIP                IEOMIP         OFF         [  0]    ***   
       EOMLEVEL             HBARFM         SAME        [  0]    ***   
       EOM_MRCC             IMRCCE         NEW         [  1]    ***   
       EOM_NONIT            EOMNON         OFF         [  0]    ***   
       EOM_NSING            IEOMSI          10D-  0             ***   
       EOM_NSTATES          IMRCCD         DAVIDSON    [  0]    ***   
       EOM_NTRIP            IEOMTR          10D-  0             ***   
       EOM_ORDER            IEXORD         ENERGY      [  0]    ***   
       EOM_PROPSTA          IEOMST              0               ***   
       ESTATE_CONV          IEXTOL          10D-  5             ***   
       ESTATE_DERI          IESTDR            999               ***   
       ESTATE_DIAG          IEXDIG         ITERATIVE   [  0]    ***   
       ESTATE_LOCK          IESLOC         ON          [  1]    ***   
       ESTATE_MAXC          IEXMXC             40               ***   
       ESTATE_PROP          IEXPRP         UNRELAXED   [  2]    ***   
       EVAL_HESS            IRECAL              0            # of cyc.
       EXCITATION           IEXCIT              0               ***   
       EXCITE               IEXCIT         EOMEE       [  3]    ***   
       EXTERN_POT           IEXPOT         OFF         [  0]    ***   
       FCGRADNEW            IFCGNW         OFF         [  0]    ***   
       FC_FIELD             IFINFC              0             x 10-6  
       FD_CALTYPE           IFDCAL         GRADONLY    [  0]    ***   
       FD_PROJECT           IFDPRJ         OFF         [  1]    ***   
       FD_STEPSIZE          IDISFD              5            10-4 bohr
       FD_USEGROUP          IFDGRP         COMP        [  1]    ***   
       FILE_RECSIZ          IFLREC              4096           words  
       FINITE_PERT          IFIPER              0             x 10-6  
       FIXGEOM              IFIXGM         OFF         [  0]    ***   
       FOCK                 IFOCK          AO          [  1]    ***   
       FREQ_ALGORI          IVIALG         PARALLEL    [  1]    ***   
       FROZEN_CORE          IFROCO         OFF         [  0]    ***   
       FROZEN_VIRT          IFROVI         OFF         [  0]    ***   
       GAMMA_ABCD           IGABCD         STORE       [  0]    ***   
       GAMMA_ABCI           IGABCI         STORE       [  0]    ***   
       GENBAS_1             IGNBS1            ***               ***   
       GENBAS_2             IGNBS2            ***               ***   
       GENBAS_3             IGNBS3            ***               ***   
       GENBAS_4             IGNBS4              0               ***   
       GEO_CONV             ICONTL              5              H/bohr 
       GEO_MAXCYC           IOPTCY             50               ***   
       GEO_MAXSTEP          IMXSTP            300            millibohr
       GEO_METHOD           INR            SINGLE_POINT[  5]    ***   
       GIAO                 IGIAO          OFF         [  1]    ***   
       GIMIC                IGIMIC         OFF         [  0]    ***   
       GRID                 IGRID          OFF         [  0]    ***   
       GRID_ALGO            IGALGO         SERIAL      [  0]    ***   
       GUESS                IGUESS         MOREAD      [  0]    ***   
       HBAR                 IHBAR          ON          [  1]    ***   
       HESS_TYPE            IHESTP         SCF         [  0]    ***   
       HF2_FILE             IHF2Fl         USE         [  1]    ***   
       HFSTABILITY          ISTABL         OFF         [  0]    ***   
       INCORE               INCORE         OFF         [  0]    ***   
       INPUT_MRCC           IMRCC          ON          [  1]    ***   
       INTEGRALS            INTTYP         VMOL        [  1]    ***   
       IRPSING              IRPSNG              0               ***   
       JODA_PRINT           IJPRNT              0               ***   
       KEYWORD_OUT          IDMPKW         NO          [  0]    ***   
       LINDEP_TOL           ILINDP              8               ***   
       LINEQ_CONV           IZTACN          10D-  9           cycles  
       LINEQ_EXPOR          ILMAXD              5               ***   
       LINEQ_MAXCY          ILMAXC            100               ***   
       LINEQ_TYPE           ILTYPE         DIIS        [  1]    ***   
       LMP2_TYP             ILMP2T         VERSION1    [  0]    ***   
       LOCK_ORBOCC          ILOCOC         OFF         [  0]    ***   
       LOC_CONV             ILOCTY          10D-  7             ***   
       LOC_TYP              ILOCPR         PIPEK-MEZEY [  0]    ***   
       MEMORY_SIZE          IMEMSZ         *********           words  
       MEM_UNIT             IMEMU          INTEGERWORDS[  0]    ***   
       MRCC                 IMRCCC         OFF         [  0]    ***   
       MULTIPLICTY          IMULTP              1               ***   
       NACOUPLING           IVCOUP         OFF         [  0]    ***   
       NCONTINUUM           INCONT                     [  0]    ***   
       NEGEVAL              IDIE           ABORT       [  0]    ***   
       NEWNORM              INEWNO         OFF         [  0]    ***   
       NON-HF               INONHF         OFF         [  0]    ***   
       NTOP_TAMP            ITOPT2             15               ***   
       NUC_MODEL            INUCMO         POINT       [  0]    ***   
       OCCUPATION           IOCCU   ESTIMATED BY SCF 
       OPEN-SHELL           IOPEN          SPIN-ORBITAL[  0]    ***   
       OPTVIB               IOPTVB         OFF         [  0]    ***   
       ORBITALS             IORBTP         STANDARD    [  0]    ***   
       PARALLEL             IPARAL         ON          [  1]    ***   
       PARA_INT             IPINTS         ON          [  1]    ***   
       PARA_PRINT           IPPRIN              0               ***   
       PERT_ORB             IPTORB         STANDARD    [  0]    ***   
       PNO_THR              IPNOTH          10D-  6             ***   
       PNO_USE              IPNOUS         OFF         [  0]    ***   
       POINTS               IGRDFD              0               ***   
       PRINT                IPRNT               0               ***   
       PROPS                IPROPS         OFF         [  0]    ***   
       PROP_INTEGR          IINTYP         INTERNAL    [  0]    ***   
       PSI                  IPSI           OFF         [  0]    ***   
       QC_ALG               IQCALG         FLM         [  0]    ***   
       QC_LINALG            IQCLIN         TRIDIAG     [  2]    ***   
       QC_MAXCYC            IQCMAX            100             cycles  
       QC_RTRUST            IQCRTR          10D-  0           x 10-3  
       QC_SKIPSCF           IQCSKI         OFF         [  0]    ***   
       QC_START             IQCSTA          10D-  3             ***   
       QRHFGUESS            IQGUES         OFF         [  0]    ***   
       QUARTIC              IQUART         OFF         [  0]    ***   
       Q_MAXSCFCY           IQCMSC             20             cycles  
       RAMAN_INT            IRAMIN         OFF         [  0]    ***   
       RAMAN_ORB            IRAMRE         UNRELAXED   [  0]    ***   
       RDO                  IRDOFM         ON          [  1]    ***   
       REDUCE_REPR          REDREP         IR          [  0]    ***   
       REFERENCE            IREFNC         RHF         [  0]    ***   
       RELATIVIST           IRELAT         OFF         [  0]    ***   
       RELAX_DENS           IRDENS         ON          [  1]    ***   
       RESET_FLAGS          IRESET         OFF         [  0]    ***   
       RESTART_CC           ICCRES         OFF         [  0]    ***   
       ROT_EVEC             ROTVEC              0               ***   
       SACC_ANSATZ          ISAANS         COS-CC      [  0]    ***   
       SACC_CALC            ISACLC         DENSITY     [  0]    ***   
       SACC_ORBS            ISAORB         STANDARD    [  0]    ***   
       SACC_PROP            ISAPRP         RELAXED     [  0]    ***   
       SAVE_INTS            ISVINT         OFF         [  0]    ***   
       SCALE_ON             ISTCRT              0               ***   
       SCF_CONV             ISCFCV          10D-  9             ***   
       SCF_DAMPING          IDAMP               0             x 10-3  
       SCF_EXPORDE          IRPPOR             10               ***   
       SCF_EXPSTAR          IRPPLS              2               ***   
       SCF_EXTRAPO          IRPP           ON          [  1]    ***   
       SCF_MAXCYC           ISCFCY            150              cycles 
       SCF_NOSTOP           ISCFST         OFF         [  0]    ***   
       SCF_ORBITAL          ISCFOR         REAL        [  0]    ***   
       SCF_PRINT            ISCFPR              0               ***   
       SCF_PROG             ISCFPR         SCF         [  0]    ***   
       SD_FIELD             IFINSD              0             x 10-6  
       SOPERT               IPERSO         OFF         [  0]    ***   
       SPHERICAL            IDFGHI         ON          [  1]    ***   
       SPINORBIT            ISOCAL         OFF         [  0]    ***   
       SPINROTATIO          ISRCON         OFF         [  0]    ***   
       SPIN_FLIP            ISPFLP         OFF         [  0]    ***   
       SPIN_ORBIT           ISPORB         OFF         [  0]    ***   
       SPIN_SCAL            ISCSMP         OFF         [  0]    ***   
       STAB_FOLLOW          ISFOLL         PLUS        [  0]    ***   
       STEEPSCALE           ISTPSC              1000          x 10-3  
       STEOM_ACT            STMACT         CANONICAL   [  0]    ***   
       STEOM_OCUT           STOCUT            200               ***   
       STEOM_VCUT           STVCUT            100               ***   
       SUBGROUP             ISUBGP         DEFAULT     [  0]    ***   
       SUBGRPAXIS           ISBXYZ         X           [  0]    ***   
       SYMMETRY             ISYM           ON          [  0]    ***   
       SYM_CHECK            ISYMCK         OVERRIDE    [  1]    ***   
       T3_EXTRAPOL          IT3EXT         OFF         [  0]    ***   
       T4_EXTRAPOL          IT4EXP         OFF         [  0]    ***   
       TAMP_SUM             IEVERY              5               ***   
       TESTSUITE            ITESTS         OFF         [  0]    ***   
       THC                  ITHC           OFF         [  0]    ***   
       THERMOCH             ITHERM         ON          [  1]    ***   
       TOL_CHOLESK          ITOLCH          10D-  4             ***   
       TRANGRAD             IRESRM         OFF         [  0]    ***   
       TRANS_INV            ITRAIN         USE         [  0]    ***   
       TREAT_PERT           ITREAT         SIMULTANEOUS[  0]    ***   
       TRIP_ALGORI          ITRALG         NORMAL      [  0]    ***   
       TWOSTATE             ITWOST         OFF         [  0]    ***   
       UIJ_THRESHO          IUIJTH              1               ***   
       UNITS                IUNITS         ANGSTROM    [  0]    ***   
       UNOS                 IUNOS          OFF         [  0]    ***   
       UPDATE_HESS          IHUPDT         ON          [  1]    ***   
       VIBPHASE             ISETPH         STANDARD    [  0]    ***   
       VIBRATION            IVIB           FINDIF      [  3]    ***   
       VIB_ALGORIT          IGEALG         STANDARD    [  0]    ***   
       VNATORB              IVNORB         OFF         [  0]    ***   
       VTRAN                IVTRAN         FULL/PARTIAL[  0]    ***   
       X2CKEY               IX2CKE         MOLVDINT    [  0]    ***   
       XFIELD               IXEFLD              0             x 10-6  
       XFORM_TOL            IXFTOL          10D- 11             ***   
       YFIELD               IYEFLD              0             x 10-6  
       ZFIELD               IZEFLD              0             x 10-6  
       ZSCALE_EXP           IZEXPS         OFF         [  0]    ***   
    -------------------------------------------------------------------
 cholesky/tol? F  1.000000000000000E-004
   4 entries found in Z-matrix 
   Job Title : c2h                                                                             
   There are  5 unique internal coordinates.
   Of these,  0 will be optimized.
   User supplied Z-matrix: 
--------------------------------------------------------------------------------
       SYMBOL    BOND      LENGTH    ANGLE     ANGLE     DIHED     ANGLE
                  TO      (ANGST)    WRT      (DEG)      WRT      (DEG)
--------------------------------------------------------------------------------
        X    
        C          1         RX   
        C          2         R1         1        A90  
        H          2         R2         1        A90        3        T180 
                  *Initial values for internal coordinates* 
                      Name             Value
                        RX              1.0000014326
                        R1              1.2772355073
                        A90            90.0000000000
                        R2              1.0616360611
                        T180          180.0000000000
--------------------------------------------------------------------------------
Line Symbol    AtNr   At. Mass
  1  X          0     0.00000
  2  C          6    12.00000
  3  C          6    12.00000
  4  H          1     1.00783
                     1                     4                     6
  -1.00000000000000        1.00000000000000       0.787377578860492     
   Rotational constants (in cm-1): 
          1.3396027232             1.3396027232
   Rotational constants (in MHz): 
      40160.2849393549         40160.2849393549
********************************************************************************
   The full molecular point group is CXv .
   The largest Abelian subgroup of the full molecular point group is C2v .
   The computational point group is C2v .
********************************************************************************
--------------------------------------------------------------------------------
   Analysis of internal coordinates specified by Z-matrix 
--------------------------------------------------------------------------------
   *The nuclear repulsion energy is   19.263564477214320 a.u.
   *There are   2 degrees of freedom within the tot. symm. molecular subspace.
   *Z-matrix requests optimization of   0 coordinates.
   *The optimization is constrained.
   *The following   2 parameters can have non-zero 
    derivatives within the totally symmetric subspace:
             R2   [ 4]  R1   [ 2]
   *The following   0 parameters are to be optimized:

   *The following coordinates must be varied in an  unconstrained optimization.
             R2   [ 4]  R1   [ 2]
--------------------------------------------------------------------------------


 ----------------------------------------------------------------
         Coordinates used in calculation (QCOMP) 
 ----------------------------------------------------------------
 Z-matrix   Atomic            Coordinates (in bohr)
  Symbol    Number           X              Y              Z
 ----------------------------------------------------------------
     X         0        -0.00000000    -1.88972923    -1.07732717
     C         6        -0.00000000    -0.00000000    -1.07732717
     C         6        -0.00000000    -0.00000000     1.33629864
     H         1         0.00000000    -0.00000000    -3.08352899
 ----------------------------------------------------------------
 
   Interatomic distance matrix (Angstroms) 
 
                 X             C             C             H    
                [ 1]        [ 2]        [ 3]        [ 4]
  X    [ 1]     0.00000
  C    [ 2]     1.00000     0.00000
  C    [ 3]     1.62214     1.27724     0.00000
  H    [ 4]     1.45845     1.06164     2.33887     0.00000
   Rotational constants (order x, y, z, in cm-1): 
          1.3396027232             0.0000000000
   Rotational constants (order x, y, z, in MHz): 
      40160.2849393549             0.0000000000
  ECPDATA file not present.   Using default ECPDATA. 
 cholesky/tol? F  1.000000000000000E-004
  There are  141 basis functions.
 @GEOPT-W, Archive file not created for single-point calculation.
 @CHECKOUT-I, Total execution time (CPU/WALL):         0.21/       0.36 seconds.
 @GETMEM-I,  Allocated   15258 MB of main memory.
  @CHRTABLE-I, There are   4 unique irreducible representations.
  @CHRTABLE-I, There are   4 unique irreducible representations.
  @VIBINF-I, Symmetries species for nuclear motions:
  Irrep     Label    Total    Vibrations     Translations     Rotations
    1          A1     3.00       2.00            1.00            0.00
    2          A2     0.00       0.00            0.00            0.00
    3          B1     3.00       1.00            1.00            1.00
    4          B2     3.00       1.00            1.00            1.00
   Total number of calculations required      :     8
   Number of single-point energy calculations :     0
   Number of energy gradient     calculations :     8
  atom charge vector                      0                     6
                     6                     1
  List of displaced geometries used in the calculation 
 
  Displaced point   1:
X       -0.0000000000       -1.8897292279       -1.0773271677
C        -0.0000000000       -0.0000000000       -1.0772230694
C        -0.0000000000       -0.0000000000        1.3362026106
H         0.0000000000       -0.0000000000       -3.0836250207
 
  Displaced point   2:
X       -0.0000000000       -1.8897292279       -1.0773271677
C        -0.0000000000       -0.0000000000       -1.0774312661
C        -0.0000000000       -0.0000000000        1.3363946765
H         0.0000000000       -0.0000000000       -3.0834329548
 
  Displaced point   3:
X       -0.0000000000       -1.8897292279       -1.0773271677
C        -0.0000000000       -0.0000000000       -1.0773271677
C        -0.0000000000       -0.0000000000        1.3363388199
H         0.0000000000       -0.0000000000       -3.0840073597
 
  Displaced point   4:
X       -0.0000000000       -1.8897292279       -1.0773271677
C        -0.0000000000       -0.0000000000       -1.0773271677
C        -0.0000000000       -0.0000000000        1.3362584673
H         0.0000000000       -0.0000000000       -3.0830506158
 
  Displaced point   5:
X       -0.0000000000       -1.8897292279       -1.0773271677
C         0.0001040983       -0.0000000000       -1.0773271677
C        -0.0000960330       -0.0000000000        1.3362986436
H        -0.0000960330       -0.0000000000       -3.0835289878
 
  Displaced point   6:
X       -0.0000000000       -1.8897292279       -1.0773271677
C        -0.0000000000       -0.0000000000       -1.0773271677
C         0.0000401763       -0.0000000000        1.3362986436
H        -0.0004783720       -0.0000000000       -3.0835289878
 
  Displaced point   7:
X       -0.0000000000       -1.8897292279       -1.0773271677
C        -0.0000000000        0.0001040983       -1.0773271677
C        -0.0000000000       -0.0000960330        1.3362986436
H         0.0000000000       -0.0000960330       -3.0835289878
 
  Displaced point   8:
X       -0.0000000000       -1.8897292279       -1.0773271677
C        -0.0000000000       -0.0000000000       -1.0773271677
C        -0.0000000000        0.0000401763        1.3362986436
H         0.0000000000       -0.0004783720       -3.0835289878
 @CHECKOUT-I, Total execution time (CPU/WALL):         0.01/       0.07 seconds.
 @GETMEM-I,  Allocated     100 MB of main memory.
 @CHECKOUT-I, Total execution time (CPU/WALL):         0.00/       0.02 seconds.
 @GETMEM-I,  Allocated   15258 MB of main memory.
  x is   0.000000000000000E+000
  x is   0.000000000000000E+000
  x is   0.000000000000000E+000
  x is   0.000000000000000E+000
  x is  -0.261160473676460     
 @CHECKOUT-I, Total execution time (CPU/WALL):         0.01/       0.03 seconds.
 @GETMEM-I,  Allocated     100 MB of main memory.
 @CHECKOUT-I, Total execution time (CPU/WALL):         0.00/       0.01 seconds.
 @GETMEM-I,  Allocated   15258 MB of main memory.
  x is   0.000000000000000E+000
  x is   0.000000000000000E+000
  x is   0.000000000000000E+000
  x is   0.000000000000000E+000
  x is  -0.261109146485058     
 @CHECKOUT-I, Total execution time (CPU/WALL):         0.01/       0.03 seconds.
 @GETMEM-I,  Allocated     100 MB of main memory.
 @CHECKOUT-I, Total execution time (CPU/WALL):         0.00/       0.01 seconds.
 @GETMEM-I,  Allocated   15258 MB of main memory.
  x is   0.000000000000000E+000
  x is   0.000000000000000E+000
  x is   0.000000000000000E+000
  x is   0.000000000000000E+000
  x is  -0.261124072154169     
 @CHECKOUT-I, Total execution time (CPU/WALL):         0.01/       0.03 seconds.
 @GETMEM-I,  Allocated     100 MB of main memory.
 @CHECKOUT-I, Total execution time (CPU/WALL):         0.00/       0.01 seconds.
 @GETMEM-I,  Allocated   15258 MB of main memory.
  x is   0.000000000000000E+000
  x is   0.000000000000000E+000
  x is   0.000000000000000E+000
  x is   0.000000000000000E+000
  x is  -0.261145545354992     
 @CHECKOUT-I, Total execution time (CPU/WALL):         0.01/       0.03 seconds.
 @GETMEM-I,  Allocated     100 MB of main memory.
 @CHECKOUT-I, Total execution time (CPU/WALL):         0.00/       0.01 seconds.
 @GETMEM-I,  Allocated   15258 MB of main memory.
  x is   0.000000000000000E+000
  x is   -1.00000000000000     
  x is  -4.849697310405077E-010
  x is  -3.935416659217594E-009
  x is   0.000000000000000E+000
  x is  -0.999999999999521     
  x is   0.000000000000000E+000
 @CHECKOUT-I, Total execution time (CPU/WALL):         0.01/       0.03 seconds.
 @GETMEM-I,  Allocated     100 MB of main memory.
 @CHECKOUT-I, Total execution time (CPU/WALL):         0.00/       0.01 seconds.
 @GETMEM-I,  Allocated   15258 MB of main memory.
  x is   0.000000000000000E+000
  x is   -1.00000000000000     
  x is  -1.203387112180820E-008
  x is  -5.801844005226542E-009
  x is   0.000000000000000E+000
  x is  -0.999999999999510     
  x is   0.000000000000000E+000
 @CHECKOUT-I, Total execution time (CPU/WALL):         0.01/       0.03 seconds.
 @GETMEM-I,  Allocated     100 MB of main memory.
 @CHECKOUT-I, Total execution time (CPU/WALL):         0.00/       0.01 seconds.
 @GETMEM-I,  Allocated   15258 MB of main memory.
  x is   0.000000000000000E+000
  x is   -1.00000000000000     
  x is  -4.849697310405077E-010
  x is  -3.935416659217594E-009
  x is  -0.999999999997545     
  x is  -0.999999999999521     
  x is  -1.110223024625157E-016
 @CHECKOUT-I, Total execution time (CPU/WALL):         0.01/       0.03 seconds.
 @GETMEM-I,  Allocated     100 MB of main memory.
 @CHECKOUT-I, Total execution time (CPU/WALL):         0.00/       0.01 seconds.
 @GETMEM-I,  Allocated   15258 MB of main memory.
  x is   0.000000000000000E+000
  x is   -1.00000000000000     
  x is  -1.203387112180820E-008
  x is  -5.801844005226542E-009
  x is  -0.999999999999507     
  x is  -0.999999999999510     
  x is   0.000000000000000E+000
Largest asymmetry in FCM    0.000006190336353
  Vibrational frequencies  (cm-1) :
      1 1767.65607    27.88646
      2 3432.63680    53.76904
Largest asymmetry in FCM    0.005976825452529
 @GRAD2FCM-W, This is potentially concerning.  
  Vibrational frequencies  (cm-1) :
      1   67.06412i   15.90089
      2 1528.41056  1103.51819
Largest asymmetry in FCM    0.000000770062830
  Vibrational frequencies  (cm-1) :
      1    0.90142    30.80315
      2  615.67523    72.09576
 @CHECKOUT-I, Total execution time (CPU/WALL):         0.01/       0.04 seconds.
 cholesky/tol? F  1.000000000000000E-004
Line Symbol    AtNr   At. Mass
  1  X          0     0.00000
  2  C          6    12.00000
  3  C          6    12.00000
  4  H          1     1.00783
                     1                     4                     6
  -1.00000000000000        1.00000000000000       0.787377578860492     
   Rotational constants (in cm-1): 
          1.3396027232             1.3396027232
   Rotational constants (in MHz): 
      40160.2849393549         40160.2849393549
********************************************************************************
   The full molecular point group is CXv .
   The largest Abelian subgroup of the full molecular point group is C2v .
   The computational point group is C2v .
********************************************************************************
 @GEOPT-W, Archive file not created for single-point calculation.
                     0                     0
  calling readgh 2 
  gradient from JOBARC 
   0.000000000000000   0.000000000000000   0.000000000000000
   0.000000000000000   0.000000000000000   0.000000000000000
   0.000000000000000   0.000000000000000   0.000000000000000
 
                     0
  current gradient vector 
        0.000000000000000        0.000000000000000        0.000000000000000
        0.000000000000000        0.000000000000000        0.000000000000000
        0.000000000000000        0.000000000000000        0.000000000000000
        0.000000000000000        0.000000000000000        0.000000000000000
  Pre-computed Hessian matrix found 
  masses used (in AMU) in vibrational analysis: 
  12.000000000     12.000000000      1.007825035
                     Normal Coordinate Analysis
  ----------------------------------------------------------------
    Irreducible         Harmonic       Infrared        Type 
   Representation       Frequency      Intensity 
  ----------------------------------------------------------------
                       (cm-1)         (km/mol)
  ----------------------------------------------------------------
      ----                67.0642i       15.9009       ROTATION  
      ----                 0.0000i        0.0000      TRANSLATION
      ----                 0.0000         0.0000      TRANSLATION
      ----                 0.0000         0.0000      TRANSLATION
      ----                 0.9014        30.8031       ROTATION  
       SG-               615.6761        72.0958       VIBRATION 
       SG+              1528.4126      1103.5182       VIBRATION 
       SG+              1767.6585        27.8865       VIBRATION 
       SG+              3432.6415        53.7690       VIBRATION 
  ----------------------------------------------------------------
 
 
                                   Normal Coordinates 

               SG-                       SG+                       SG+
               615.68                   1528.41                   1767.66 
             VIBRATION                 VIBRATION                 VIBRATION 
 C      0.000 0.4585  0.0000    0.4767 -0.0000  0.0000   -0.0000  0.0000  0.6390
 C      0.000-0.2081  0.0000   -0.2309 -0.0000 -0.0000    0.0000 -0.0000 -0.7186
 H     -0.000-0.8640  0.0000   -0.8482  0.0000  0.0000    0.0000 -0.0000  0.2745

               SG+
              3432.64 
             VIBRATION 
 C     -0.000 0.0000  0.3344
 C      0.000-0.0000 -0.0618
 H      0.000-0.0000 -0.9404
--------------------------------------------------------------------------
                              Internal Coordinate Gradient 
Parameter    AU/Bohr or Radian    CM-1/mbohr or mrad      eV/mbohr or mrad 
--------------------------------------------------------------------------
    RX              0.000000000000      0.000000000000      0.000000000000
    R1              0.000000000000      0.000000000000      0.000000000000
    A90             0.000000000000      0.000000000000      0.000000000000
    R2              0.000000000000      0.000000000000      0.000000000000
    A90             0.000000000000      0.000000000000      0.000000000000
    T180            0.000000000000      0.000000000000      0.000000000000
--------------------------------------------------------------------------
 
                      Normal modes in internal coordinates 
---------------------------------------------------------------------------
             67.064         0.000         0.000         0.000         0.901
---------------------------------------------------------------------------
RX         0.000000     -0.189986      0.041659     -0.046448      0.160712
R1        -0.000000      0.000000     -0.000000      0.000000     -0.000000
A90       -0.000000     -0.024801      0.001576      0.102859     -0.149175
R2         0.000000      0.000000     -0.000000     -0.000000     -0.000000
A90        0.000000      0.024801     -0.001576     -0.102859      0.149159
T180      -0.019018      0.000000     -0.000000     -0.000000      0.000000
---------------------------------------------------------------------------
            615.676      1528.413      1767.658      3432.641
---------------------------------------------------------------------------
RX         0.255255     -0.000000     -0.000000     -0.000000
R1         0.000000     -0.000000     -0.922310     -0.109753
A90       -0.153757      0.000000      0.229735      0.049015
R2         0.000000     -0.000000     -0.209257      0.991539
A90       -0.954570      0.000000     -0.229735     -0.049015
T180       0.000000      1.000000     -0.000000      0.000000
---------------------------------------------------------------------------
 
  ----------------------------------------------------------------
                    Dipole Moment Function
                   (Normal Coordinate Basis)
  ----------------------------------------------------------------
    Mode     Symmetry    d(Mu(x))/dQ   d(Mu(y))/dQ   d(Mu(z))/dQ
  ----------------------------------------------------------------
     Q6         SG-       -0.000000     -0.271946      0.000000
     Q7         SG+       -1.063939      0.000000     -0.000000
     Q8         SG+        0.000000     -0.000000     -0.169131
     Q9         SG+        0.000000     -0.000000     -0.234851
  ----------------------------------------------------------------
---------------------------------------------------------------------------
------------------------------------------------------------
        Parameter                (MHz)                 (CM-1)
------------------------------------------------------------
 
           R6                0.000000E+00           0.000000E+00
           R5                0.000000E+00           0.000000E+00
           SI                            0.100000E+81
 
  A-reduced centrifugal distortion parameters (Ir representation) 
 
           DJ                0.894056E-01           0.298225E-05
           DK                0.894056E-01           0.298225E-05
           DJK               -.178811E+00           -.596450E-05
           DELJ              0.894056E-01           0.298225E-05
           DELK              0.894056E-01           0.298225E-05
           DELJK             -.178811E+00           -.596450E-05
           delJ              0.000000E+00           0.000000E+00
           delK              0.000000E+00           0.000000E+00
 
  S-reduced centrifugal distortion parameters (Ir representation) 
 
           DJ                0.894056E-01           0.298225E-05
           DK                0.894056E-01           0.298225E-05
           DJK               -.178811E+00           -.596450E-05
           D1                0.000000E+00           0.000000E+00
           D2                0.000000E+00           0.000000E+00
------------------------------------------------------------
  null vector returned from NORMAL
   Rotationally projected vibrational frequencies 
            1               0.0000i
            2               0.0000i
            3               0.0000 
            4               0.0000 
            5               0.0000 
            6             615.6761 
            7            1527.5739 
            8            1767.6585 
            9            3432.6415 
  Zero-point energy:   10.4981 kcal/mol =   43.9242 kJ/mol =    3671.775 cm-1 
 
  Finite temperature thermodynamic corrections:
=======================================================
Temperature     Entropy       Enthalpy     Gibbs Energy
    (K)        (J/(mol K))    (kJ/mol)      (kJ/mol) 
=======================================================
    298.15      201.0671        9.0899      -50.8583
    100.00      167.4571        2.9111      -13.8346
    200.00      188.1627        5.9094      -31.7232
    300.00      201.2756        9.1522      -51.2304
    400.00      211.3356       12.6554      -71.8788
    500.00      219.7277       16.4212      -93.4427
    600.00      227.0534       20.4429     -115.7891
    700.00      233.6131       24.7012     -138.8280
    800.00      239.5793       29.1714     -162.4920
    900.00      245.0633       33.8292     -186.7278
   1000.00      250.1435       38.6523     -211.4913
   1100.00      254.8780       43.6208     -236.7450
   1200.00      259.3117       48.7172     -262.4568
   1300.00      263.4803       53.9259     -288.5985
   1400.00      267.4132       59.2334     -315.1450
   1500.00      271.1347       64.6279     -342.0741
   1600.00      274.6654       70.0990     -369.3656
   1700.00      278.0230       75.6377     -397.0014
   1800.00      281.2229       81.2363     -424.9650
   1900.00      284.2785       86.8880     -453.2412
   2000.00      287.2015       92.5868     -481.8163
=======================================================
 @CHECKOUT-I, Total execution time (CPU/WALL):         0.05/       0.19 seconds.
 @GETMEM-I,  Allocated   15258 MB of main memory.
  linear flag is set to                      1
  done here
  Choosing displaced geometries for anharmonic force constant calculation.

  The molecule is linear.
 *Analyzing normal coordinate   6.
  The one-dimensional nonsymmetric coordinate will be used. [  6]
 *Analyzing normal coordinate   7.
  The one-dimensional nonsymmetric coordinate will be used. [  7]
 *Analyzing normal coordinate   8.
  The one-dimensional nonsymmetric coordinate will be used. [  8]
 *Analyzing normal coordinate   9.
  The one-dimensional nonsymmetric coordinate will be used. [  9]
  @GETREC-F, File attached to unit  75 does not contain record REFNORM2.
 @CHECKOUT-I, Total execution time (CPU/WALL):         0.00/       0.02 seconds.
 
  ERROR ERROR ERROR ERROR ERROR ERROR 
  Job has terminated with error flag 
  ERROR ERROR ERROR ERROR ERROR ERROR 
 
